LAMMPS data file. msi2lmp v3.9.8 / 06 Oct 2016 / CGCMM for ..\Conversion\MT2EtOH_cvff

     70 atoms
     69 bonds
    134 angles
    195 dihedrals
      0 impropers

   6 atom types
   8 bond types
  15 angle types
  18 dihedral types

    -0.489006509    16.706551122 xlo xhi
    -4.287017125     3.831243593 ylo yhi
    -4.228756091    10.701370961 zlo zhi

Masses

   1  14.006700 # n4
   2  12.011150 # c2
   3  12.011150 # c3
   4  15.999400 # oh
   5   1.007970 # h
   6   1.007970 # ho

Pair Coeffs # lj/cut/coul/long

   1   0.1669999743   3.5012320066 # n4
   2   0.0389999952   3.8754094636 # c2
   3   0.0389999952   3.8754094636 # c3
   4   0.2280000124   2.8597848722 # oh
   5   0.0380000011   2.4499714540 # h
   6   0.0000000000   0.0000000000 # ho

Bond Coeffs # harmonic

   1   356.5988     1.4700 # n4-c2
   2   356.5988     1.4700 # n4-c3
   3   322.7158     1.5260 # c2-c2
   4   340.6175     1.1050 # c2-h
   5   384.0000     1.4200 # c2-oh
   6   322.7158     1.5260 # c2-c3
   7   340.6175     1.1050 # c3-h
   8   553.9350     1.0000 # oh-ho

Angle Coeffs # harmonic

   1    86.3000   112.0000 # c2-n4-c2
   2    86.3000   112.0000 # c2-n4-c3
   3    50.0000   109.5000 # n4-c2-c2
   4    57.3000   109.5000 # n4-c2-h
   5    44.4000   110.0000 # c2-c2-h
   6    39.5000   106.4000 # h-c2-h
   7    70.0000   109.5000 # c2-c2-oh
   8    57.0000   109.5000 # oh-c2-h
   9    46.6000   110.5000 # c2-c2-c2
  10    46.6000   110.5000 # c2-c2-c3
  11    44.4000   110.0000 # c3-c2-h
  12    44.4000   110.0000 # c2-c3-h
  13    39.5000   106.4000 # h-c3-h
  14    57.3000   109.5000 # n4-c3-h
  15    58.5000   106.0000 # c2-oh-ho

Dihedral Coeffs # harmonic

  1     0.0889   1   3 # c2-n4-c2-c2
  2     0.0889   1   3 # c2-n4-c2-h
  3     0.0889   1   3 # c3-n4-c2-c2
  4     0.0889   1   3 # c3-n4-c2-h
  5     0.0889   1   3 # c2-n4-c3-h
  6     0.1581   1   3 # n4-c2-c2-oh
  7     0.1581   1   3 # n4-c2-c2-h
  8     0.1581   1   3 # oh-c2-c2-h
  9     0.1581   1   3 # h-c2-c2-h
 10     0.1300   1   3 # c2-c2-oh-ho
 11     0.1300   1   3 # h-c2-oh-ho
 12     0.1581   1   3 # n4-c2-c2-c2
 13     0.1581   1   3 # c2-c2-c2-h
 14     0.1581   1   3 # c2-c2-c2-c2
 15     0.1581   1   3 # c2-c2-c2-c3
 16     0.1581   1   3 # c3-c2-c2-h
 17     0.1581   1   3 # c2-c2-c3-h
 18     0.1581   1   3 # h-c2-c3-h

Atoms # full

      1      1   1 -0.680000     2.091727589    -0.042125983    -1.081278404   0   0   0 # n4
      2      1   2  0.220000     1.904772317     0.853497011    -2.276217456   0   0   0 # c2
      3      1   2 -0.170000     3.177039973     1.572510515    -2.787887694   0   0   0 # c2
      4      1   2  0.220000     3.040307416    -1.143881523    -1.460795198   0   0   0 # c2
      5      1   2 -0.170000     3.375384193    -2.163149954    -0.356474025   0   0   0 # c2
      6      1   2  0.220000     2.612408615     0.780194483     0.071140876   0   0   0 # c2
      7      1   2 -0.200000     2.162381521     0.346023542     1.493056410   0   0   0 # c2
      8      1   2 -0.200000     2.925538117     1.092191927     2.600677477   0   0   0 # c2
      9      1   2 -0.200000     4.326358915     0.508107162     2.843435417   0   0   0 # c2
     10      1   2 -0.200000     5.021847523     1.221219564     4.012990428   0   0   0 # c2
     11      1   2 -0.200000     6.476665869     0.763544093     4.206767325   0   0   0 # c2
     12      1   2 -0.200000     6.577127228    -0.631788939     4.844454363   0   0   0 # c2
     13      1   2 -0.200000     8.028101034    -1.127316010     4.970209677   0   0   0 # c2
     14      1   2 -0.200000     8.876108486    -0.312532356     5.970094964   0   0   0 # c2
     15      1   2 -0.200000     9.841391869     0.652423089     5.258926143   0   0   0 # c2
     16      1   2 -0.200000    10.523213113     1.630749280     6.228180140   0   0   0 # c2
     17      1   2 -0.200000    11.517771388     0.935617858     7.170004197   0   0   0 # c2
     18      1   2 -0.200000    12.282466058     1.965311484     8.015416395   0   0   0 # c2
     19      1   2 -0.200000    13.182687886     1.310910958     9.075322517   0   0   0 # c2
     20      1   2 -0.200000    14.402389533     0.607411675     8.462347771   0   0   0 # c2
     21      1   3 -0.300000    15.340371563     0.088559433     9.548526935   0   0   0 # c3
     22      1   3  0.120000     0.741330558    -0.609539098    -0.801878931   0   0   0 # c3
     23      1   4 -0.380000     2.825198194     2.550603871    -3.728756091   0   0   0 # oh
     24      1   4 -0.380000     4.192301835    -3.165826905    -0.895005485   0   0   0 # oh
     25      1   5  0.100000     1.147035695     1.638456647    -2.044478935   0   0   0 # h
     26      1   5  0.100000     1.488910742     0.276503167    -3.135076813   0   0   0 # h
     27      1   5  0.100000     3.842168912     0.848569092    -3.300593256   0   0   0 # h
     28      1   5  0.100000     3.754197955     2.041625979    -1.962123169   0   0   0 # h
     29      1   5  0.100000     4.018520858    -0.723017461    -1.774835335   0   0   0 # h
     30      1   5  0.100000     2.639999647    -1.705569268    -2.336191239   0   0   0 # h
     31      1   5  0.100000     2.457892818    -2.637009844     0.047527584   0   0   0 # h
     32      1   5  0.100000     3.933169966    -1.659299330     0.461826559   0   0   0 # h
     33      1   5  0.100000     2.285851246     1.841266512    -0.027198351   0   0   0 # h
     34      1   5  0.100000     3.722129501     0.811740155     0.035446632   0   0   0 # h
     35      1   5  0.100000     2.264782182    -0.743604018     1.657068977   0   0   0 # h
     36      1   5  0.100000     1.084797080     0.592454947     1.611222386   0   0   0 # h
     37      1   5  0.100000     2.339575878     1.006398832     3.542335536   0   0   0 # h
     38      1   5  0.100000     2.999548698     2.173107127     2.349114203   0   0   0 # h
     39      1   5  0.100000     4.946985704     0.621674477     1.930138821   0   0   0 # h
     40      1   5  0.100000     4.228619845    -0.574295653     3.070447839   0   0   0 # h
     41      1   5  0.100000     4.447457320     1.061490817     4.951957862   0   0   0 # h
     42      1   5  0.100000     5.031886974     2.314288895     3.807171346   0   0   0 # h
     43      1   5  0.100000     6.968841834     1.499034789     4.877930549   0   0   0 # h
     44      1   5  0.100000     7.011578380     0.779137619     3.231935297   0   0   0 # h
     45      1   5  0.100000     6.029526843    -1.366236158     4.218008622   0   0   0 # h
     46      1   5  0.100000     6.097708865    -0.623021148     5.847866704   0   0   0 # h
     47      1   5  0.100000     8.505621638    -1.157814698     3.965800829   0   0   0 # h
     48      1   5  0.100000     7.986688378    -2.179723073     5.327805737   0   0   0 # h
     49      1   5  0.100000     9.475970892    -1.024927810     6.576383593   0   0   0 # h
     50      1   5  0.100000     8.222230495     0.246102928     6.675206175   0   0   0 # h
     51      1   5  0.100000     9.284866347     1.250906336     4.507750184   0   0   0 # h
     52      1   5  0.100000    10.613043287     0.070484419     4.708661581   0   0   0 # h
     53      1   5  0.100000     9.751667511     2.168757790     6.821678960   0   0   0 # h
     54      1   5  0.100000    11.069875693     2.387110830     5.623069720   0   0   0 # h
     55      1   5  0.100000    12.235787283     0.343764895     6.563563530   0   0   0 # h
     56      1   5  0.100000    10.968871438     0.247727007     7.847937621   0   0   0 # h
     57      1   5  0.100000    11.547491904     2.612293562     8.543006894   0   0   0 # h
     58      1   5  0.100000    12.893415117     2.619466325     7.355239958   0   0   0 # h
     59      1   5  0.100000    12.590933059     0.587110571     9.677804614   0   0   0 # h
     60      1   5  0.100000    13.537569726     2.109837329     9.762980306   0   0   0 # h
     61      1   5  0.100000    14.961775138     1.317296954     7.814952243   0   0   0 # h
     62      1   5  0.100000    14.074821914    -0.253940624     7.842913925   0   0   0 # h
     63      1   5  0.100000    14.810147988    -0.637259847    10.201370961   0   0   0 # h
     64      1   5  0.100000    15.718841994     0.930253210    10.166885804   0   0   0 # h
     65      1   5  0.100000    16.206551122    -0.423207053     9.078554009   0   0   0 # h
     66      1   5  0.100000     0.733182606    -1.311098802     0.053483107   0   0   0 # h
     67      1   5  0.100000     0.352508827    -1.176157507    -1.677941820   0   0   0 # h
     68      1   5  0.100000     0.010993491     0.197393767    -0.567884199   0   0   0 # h
     69      1   6  0.350000     2.487774019     3.331243593    -3.216152793   0   0   0 # ho
     70      1   6  0.350000     4.398296815    -3.787017125    -0.148554652   0   0   0 # ho

Bonds

     1   1      1      2
     2   1      1      4
     3   1      1      6
     4   2      1     22
     5   3      2      3
     6   4      2     25
     7   4      2     26
     8   5      3     23
     9   4      3     27
    10   4      3     28
    11   3      4      5
    12   4      4     29
    13   4      4     30
    14   5      5     24
    15   4      5     31
    16   4      5     32
    17   3      6      7
    18   4      6     33
    19   4      6     34
    20   3      7      8
    21   4      7     35
    22   4      7     36
    23   3      8      9
    24   4      8     37
    25   4      8     38
    26   3      9     10
    27   4      9     39
    28   4      9     40
    29   3     10     11
    30   4     10     41
    31   4     10     42
    32   3     11     12
    33   4     11     43
    34   4     11     44
    35   3     12     13
    36   4     12     45
    37   4     12     46
    38   3     13     14
    39   4     13     47
    40   4     13     48
    41   3     14     15
    42   4     14     49
    43   4     14     50
    44   3     15     16
    45   4     15     51
    46   4     15     52
    47   3     16     17
    48   4     16     53
    49   4     16     54
    50   3     17     18
    51   4     17     55
    52   4     17     56
    53   3     18     19
    54   4     18     57
    55   4     18     58
    56   3     19     20
    57   4     19     59
    58   4     19     60
    59   6     20     21
    60   4     20     61
    61   4     20     62
    62   7     21     63
    63   7     21     64
    64   7     21     65
    65   7     22     66
    66   7     22     67
    67   7     22     68
    68   8     23     69
    69   8     24     70

Angles

     1   1      2      1      4
     2   1      2      1      6
     3   2      2      1     22
     4   1      4      1      6
     5   2      4      1     22
     6   2      6      1     22
     7   3      1      2      3
     8   4      1      2     25
     9   4      1      2     26
    10   5      3      2     25
    11   5      3      2     26
    12   6     25      2     26
    13   7      2      3     23
    14   5      2      3     27
    15   5      2      3     28
    16   8     23      3     27
    17   8     23      3     28
    18   6     27      3     28
    19   3      1      4      5
    20   4      1      4     29
    21   4      1      4     30
    22   5      5      4     29
    23   5      5      4     30
    24   6     29      4     30
    25   7      4      5     24
    26   5      4      5     31
    27   5      4      5     32
    28   8     24      5     31
    29   8     24      5     32
    30   6     31      5     32
    31   3      1      6      7
    32   4      1      6     33
    33   4      1      6     34
    34   5      7      6     33
    35   5      7      6     34
    36   6     33      6     34
    37   9      6      7      8
    38   5      6      7     35
    39   5      6      7     36
    40   5      8      7     35
    41   5      8      7     36
    42   6     35      7     36
    43   9      7      8      9
    44   5      7      8     37
    45   5      7      8     38
    46   5      9      8     37
    47   5      9      8     38
    48   6     37      8     38
    49   9      8      9     10
    50   5      8      9     39
    51   5      8      9     40
    52   5     10      9     39
    53   5     10      9     40
    54   6     39      9     40
    55   9      9     10     11
    56   5      9     10     41
    57   5      9     10     42
    58   5     11     10     41
    59   5     11     10     42
    60   6     41     10     42
    61   9     10     11     12
    62   5     10     11     43
    63   5     10     11     44
    64   5     12     11     43
    65   5     12     11     44
    66   6     43     11     44
    67   9     11     12     13
    68   5     11     12     45
    69   5     11     12     46
    70   5     13     12     45
    71   5     13     12     46
    72   6     45     12     46
    73   9     12     13     14
    74   5     12     13     47
    75   5     12     13     48
    76   5     14     13     47
    77   5     14     13     48
    78   6     47     13     48
    79   9     13     14     15
    80   5     13     14     49
    81   5     13     14     50
    82   5     15     14     49
    83   5     15     14     50
    84   6     49     14     50
    85   9     14     15     16
    86   5     14     15     51
    87   5     14     15     52
    88   5     16     15     51
    89   5     16     15     52
    90   6     51     15     52
    91   9     15     16     17
    92   5     15     16     53
    93   5     15     16     54
    94   5     17     16     53
    95   5     17     16     54
    96   6     53     16     54
    97   9     16     17     18
    98   5     16     17     55
    99   5     16     17     56
   100   5     18     17     55
   101   5     18     17     56
   102   6     55     17     56
   103   9     17     18     19
   104   5     17     18     57
   105   5     17     18     58
   106   5     19     18     57
   107   5     19     18     58
   108   6     57     18     58
   109   9     18     19     20
   110   5     18     19     59
   111   5     18     19     60
   112   5     20     19     59
   113   5     20     19     60
   114   6     59     19     60
   115  10     19     20     21
   116   5     19     20     61
   117   5     19     20     62
   118  11     21     20     61
   119  11     21     20     62
   120   6     61     20     62
   121  12     20     21     63
   122  12     20     21     64
   123  12     20     21     65
   124  13     63     21     64
   125  13     63     21     65
   126  13     64     21     65
   127  14      1     22     66
   128  14      1     22     67
   129  14      1     22     68
   130  13     66     22     67
   131  13     66     22     68
   132  13     67     22     68
   133  15      3     23     69
   134  15      5     24     70

Dihedrals

     1   1      4      1      2      3
     2   2      4      1      2     25
     3   2      4      1      2     26
     4   1      6      1      2      3
     5   2      6      1      2     25
     6   2      6      1      2     26
     7   3     22      1      2      3
     8   4     22      1      2     25
     9   4     22      1      2     26
    10   1      2      1      4      5
    11   2      2      1      4     29
    12   2      2      1      4     30
    13   1      6      1      4      5
    14   2      6      1      4     29
    15   2      6      1      4     30
    16   3     22      1      4      5
    17   4     22      1      4     29
    18   4     22      1      4     30
    19   1      2      1      6      7
    20   2      2      1      6     33
    21   2      2      1      6     34
    22   1      4      1      6      7
    23   2      4      1      6     33
    24   2      4      1      6     34
    25   3     22      1      6      7
    26   4     22      1      6     33
    27   4     22      1      6     34
    28   5      2      1     22     66
    29   5      2      1     22     67
    30   5      2      1     22     68
    31   5      4      1     22     66
    32   5      4      1     22     67
    33   5      4      1     22     68
    34   5      6      1     22     66
    35   5      6      1     22     67
    36   5      6      1     22     68
    37   6      1      2      3     23
    38   7      1      2      3     27
    39   7      1      2      3     28
    40   8     23      3      2     25
    41   9     25      2      3     27
    42   9     25      2      3     28
    43   8     23      3      2     26
    44   9     26      2      3     27
    45   9     26      2      3     28
    46  10      2      3     23     69
    47  11     27      3     23     69
    48  11     28      3     23     69
    49   6      1      4      5     24
    50   7      1      4      5     31
    51   7      1      4      5     32
    52   8     24      5      4     29
    53   9     29      4      5     31
    54   9     29      4      5     32
    55   8     24      5      4     30
    56   9     30      4      5     31
    57   9     30      4      5     32
    58  10      4      5     24     70
    59  11     31      5     24     70
    60  11     32      5     24     70
    61  12      1      6      7      8
    62   7      1      6      7     35
    63   7      1      6      7     36
    64  13      8      7      6     33
    65   9     33      6      7     35
    66   9     33      6      7     36
    67  13      8      7      6     34
    68   9     34      6      7     35
    69   9     34      6      7     36
    70  14      6      7      8      9
    71  13      6      7      8     37
    72  13      6      7      8     38
    73  13      9      8      7     35
    74   9     35      7      8     37
    75   9     35      7      8     38
    76  13      9      8      7     36
    77   9     36      7      8     37
    78   9     36      7      8     38
    79  14      7      8      9     10
    80  13      7      8      9     39
    81  13      7      8      9     40
    82  13     10      9      8     37
    83   9     37      8      9     39
    84   9     37      8      9     40
    85  13     10      9      8     38
    86   9     38      8      9     39
    87   9     38      8      9     40
    88  14      8      9     10     11
    89  13      8      9     10     41
    90  13      8      9     10     42
    91  13     11     10      9     39
    92   9     39      9     10     41
    93   9     39      9     10     42
    94  13     11     10      9     40
    95   9     40      9     10     41
    96   9     40      9     10     42
    97  14      9     10     11     12
    98  13      9     10     11     43
    99  13      9     10     11     44
   100  13     12     11     10     41
   101   9     41     10     11     43
   102   9     41     10     11     44
   103  13     12     11     10     42
   104   9     42     10     11     43
   105   9     42     10     11     44
   106  14     10     11     12     13
   107  13     10     11     12     45
   108  13     10     11     12     46
   109  13     13     12     11     43
   110   9     43     11     12     45
   111   9     43     11     12     46
   112  13     13     12     11     44
   113   9     44     11     12     45
   114   9     44     11     12     46
   115  14     11     12     13     14
   116  13     11     12     13     47
   117  13     11     12     13     48
   118  13     14     13     12     45
   119   9     45     12     13     47
   120   9     45     12     13     48
   121  13     14     13     12     46
   122   9     46     12     13     47
   123   9     46     12     13     48
   124  14     12     13     14     15
   125  13     12     13     14     49
   126  13     12     13     14     50
   127  13     15     14     13     47
   128   9     47     13     14     49
   129   9     47     13     14     50
   130  13     15     14     13     48
   131   9     48     13     14     49
   132   9     48     13     14     50
   133  14     13     14     15     16
   134  13     13     14     15     51
   135  13     13     14     15     52
   136  13     16     15     14     49
   137   9     49     14     15     51
   138   9     49     14     15     52
   139  13     16     15     14     50
   140   9     50     14     15     51
   141   9     50     14     15     52
   142  14     14     15     16     17
   143  13     14     15     16     53
   144  13     14     15     16     54
   145  13     17     16     15     51
   146   9     51     15     16     53
   147   9     51     15     16     54
   148  13     17     16     15     52
   149   9     52     15     16     53
   150   9     52     15     16     54
   151  14     15     16     17     18
   152  13     15     16     17     55
   153  13     15     16     17     56
   154  13     18     17     16     53
   155   9     53     16     17     55
   156   9     53     16     17     56
   157  13     18     17     16     54
   158   9     54     16     17     55
   159   9     54     16     17     56
   160  14     16     17     18     19
   161  13     16     17     18     57
   162  13     16     17     18     58
   163  13     19     18     17     55
   164   9     55     17     18     57
   165   9     55     17     18     58
   166  13     19     18     17     56
   167   9     56     17     18     57
   168   9     56     17     18     58
   169  14     17     18     19     20
   170  13     17     18     19     59
   171  13     17     18     19     60
   172  13     20     19     18     57
   173   9     57     18     19     59
   174   9     57     18     19     60
   175  13     20     19     18     58
   176   9     58     18     19     59
   177   9     58     18     19     60
   178  15     18     19     20     21
   179  13     18     19     20     61
   180  13     18     19     20     62
   181  16     21     20     19     59
   182   9     59     19     20     61
   183   9     59     19     20     62
   184  16     21     20     19     60
   185   9     60     19     20     61
   186   9     60     19     20     62
   187  17     19     20     21     63
   188  17     19     20     21     64
   189  17     19     20     21     65
   190  18     61     20     21     63
   191  18     61     20     21     64
   192  18     61     20     21     65
   193  18     62     20     21     63
   194  18     62     20     21     64
   195  18     62     20     21     65

