LAMMPS data file. msi2lmp v3.9.8 / 06 Oct 2016 / CGCMM for ..\Conversion\Polynylon6

     21 atoms
     20 bonds
     36 angles
     46 dihedrals
      2 impropers

   7 atom types
   8 bond types
  14 angle types
  15 dihedral types
   2 improper types

    -4.327132810     3.893695383 xlo xhi
    -1.587200947     1.952182173 ylo yhi
    -2.176324146     5.487138485 zlo zhi

Masses

   1   1.007970 # hn
   2  12.011150 # c3
   3   1.007970 # h
   4  12.011150 # c2
   5  12.011150 # c'
   6  15.999400 # o'
   7  14.006700 # n2

Pair Coeffs # lj/cut/coul/long

   1   0.0000000000   0.0000000000 # hn
   2   0.0389999952   3.8754094636 # c3
   3   0.0380000011   2.4499714540 # h
   4   0.0389999952   3.8754094636 # c2
   5   0.1479999981   3.6170487995 # c'
   6   0.2280000124   2.8597848722 # o'
   7   0.1669999743   3.5012320066 # n2

Bond Coeffs # harmonic

   1   457.4592     1.0260 # hn-n2
   2   322.7158     1.5260 # c3-c2
   3   340.6175     1.1050 # c3-h
   4   322.7158     1.5260 # c2-c2
   5   340.6175     1.1050 # h-c2
   6   283.0924     1.5200 # c2-c'
   7   615.3220     1.2300 # c'-o'
   8   388.0000     1.3200 # c'-n2

Angle Coeffs # harmonic

   1    44.4000   110.0000 # h-c3-c2
   2    39.5000   106.4000 # h-c3-h
   3    46.6000   110.5000 # c3-c2-c2
   4    44.4000   110.0000 # c3-c2-h
   5    44.4000   110.0000 # h-c2-c2
   6    39.5000   106.4000 # h-c2-h
   7    46.6000   110.5000 # c2-c2-c2
   8    45.0000   109.5000 # h-c2-c'
   9    46.6000   110.5000 # c2-c2-c'
  10    68.0000   120.0000 # o'-c'-n2
  11    68.0000   120.0000 # c2-c'-o'
  12    53.5000   114.1000 # c2-c'-n2
  13    37.5000   115.0000 # hn-n2-c'
  14    33.0000   125.0000 # hn-n2-hn

Dihedral Coeffs # harmonic

  1     0.1581   1   3 # h-c3-c2-c2
  2     0.1581   1   3 # h-c3-c2-h
  3     0.1581   1   3 # c3-c2-c2-c2
  4     0.1581   1   3 # c3-c2-c2-h
  5     0.1581   1   3 # h-c2-c2-c2
  6     0.1581   1   3 # h-c2-c2-h
  7     0.1581   1   3 # c2-c2-c2-c2
  8     0.1581   1   3 # c2-c2-c2-c'
  9     0.1581   1   3 # h-c2-c2-c'
 10     0.0000   1   0 # h-c2-c'-o'
 11     0.0000   1   0 # h-c2-c'-n2
 12     0.0000   1   0 # c2-c2-c'-o'
 13     0.0000   1   0 # c2-c2-c'-n2
 14     1.5000  -1   2 # o'-c'-n2-hn
 15     1.5000  -1   2 # c2-c'-n2-hn

Improper Coeffs # cvff

    1    10.0000  -1   2 # c2-c'-n2-o'
    2     0.0500  -1   2 # hn-n2-c'-hn

Atoms # full

      1      1   1  0.280000    -2.200667858    -0.388070904     4.987138485   0   0   0 # hn
      2      1   2 -0.300000     2.792645734     0.236781596    -0.627552361   0   0   0 # c3
      3      1   3  0.100000     3.393695383     0.900921947     0.014118034   0   0   0 # h
      4      1   3  0.100000     3.107571723    -0.800905974    -0.431824198   0   0   0 # h
      5      1   4 -0.200000     1.299912462     0.414573332    -0.348121671   0   0   0 # c2
      6      1   3  0.100000     1.003962584     1.452182173    -0.583838818   0   0   0 # h
      7      1   3  0.100000     0.720372043    -0.238305813    -1.024482569   0   0   0 # h
      8      1   4 -0.200000     0.929121226     0.098310244     1.104580239   0   0   0 # c2
      9      1   3  0.100000     1.511625007     0.752401233     1.777515786   0   0   0 # h
     10      1   3  0.100000     1.228088929    -0.939358370     1.336758346   0   0   0 # h
     11      1   4 -0.200000    -0.564777522     0.272289874     1.398570435   0   0   0 # c2
     12      1   3  0.100000    -0.857060743     1.311947654     1.165506918   0   0   0 # h
     13      1   3  0.100000    -1.141707464    -0.384396362     0.722907791   0   0   0 # h
     14      1   4 -0.200000    -0.932342410    -0.045018467     2.850826575   0   0   0 # c2
     15      1   3  0.100000    -0.653200501    -1.087200947     3.084045133   0   0   0 # h
     16      1   3  0.100000    -0.367498210     0.617737662     3.529096864   0   0   0 # h
     17      1   5  0.380000    -2.447166827     0.161758326     3.029765087   0   0   0 # c'
     18      1   6 -0.380000    -3.217294355     0.515621024     2.162579649   0   0   0 # o'
     19      1   7 -0.560000    -2.846709554    -0.096278190     4.281156676   0   0   0 # n2
     20      1   1  0.280000    -3.827132810     0.019145616     4.466650176   0   0   0 # hn
     21      1   3  0.100000     3.036362509     0.470489722    -1.676324146   0   0   0 # h

Bonds

     1   1      1     19
     2   2      2      5
     3   3      2      4
     4   3      2      3
     5   3      2     21
     6   4      5      8
     7   5      7      5
     8   5      6      5
     9   4      8     11
    10   5     10      8
    11   5      9      8
    12   4     11     14
    13   5     13     11
    14   5     12     11
    15   5     16     14
    16   5     15     14
    17   6     14     17
    18   7     17     18
    19   8     17     19
    20   1     20     19

Angles

     1   1      4      2      5
     2   1      3      2      5
     3   1     21      2      5
     4   2      4      2      3
     5   2      4      2     21
     6   2      3      2     21
     7   3      2      5      8
     8   4      2      5      7
     9   4      2      5      6
    10   5      7      5      8
    11   5      6      5      8
    12   6      7      5      6
    13   7      5      8     11
    14   5     10      8      5
    15   5      9      8      5
    16   5     10      8     11
    17   5      9      8     11
    18   6     10      8      9
    19   7      8     11     14
    20   5     13     11      8
    21   5     12     11      8
    22   5     13     11     14
    23   5     12     11     14
    24   6     13     11     12
    25   6     16     14     15
    26   5     16     14     11
    27   8     16     14     17
    28   5     15     14     11
    29   8     15     14     17
    30   9     11     14     17
    31  10     18     17     19
    32  11     14     17     18
    33  12     14     17     19
    34  13     20     19     17
    35  13      1     19     17
    36  14     20     19      1

Dihedrals

     1   1      4      2      5      8
     2   2      4      2      5      7
     3   2      4      2      5      6
     4   1      3      2      5      8
     5   2      3      2      5      7
     6   2      3      2      5      6
     7   1     21      2      5      8
     8   2     21      2      5      7
     9   2     21      2      5      6
    10   3      2      5      8     11
    11   4      2      5      8     10
    12   4      2      5      8      9
    13   5      7      5      8     11
    14   6      7      5      8     10
    15   6      7      5      8      9
    16   5      6      5      8     11
    17   6      6      5      8     10
    18   6      6      5      8      9
    19   7      5      8     11     14
    20   5     13     11      8      5
    21   5     12     11      8      5
    22   5     10      8     11     14
    23   6     10      8     11     13
    24   6     10      8     11     12
    25   5      9      8     11     14
    26   6      9      8     11     13
    27   6      9      8     11     12
    28   5     16     14     11      8
    29   5     15     14     11      8
    30   8      8     11     14     17
    31   6     13     11     14     16
    32   6     13     11     14     15
    33   9     13     11     14     17
    34   6     12     11     14     16
    35   6     12     11     14     15
    36   9     12     11     14     17
    37  10     16     14     17     18
    38  11     16     14     17     19
    39  10     15     14     17     18
    40  11     15     14     17     19
    41  12     11     14     17     18
    42  13     11     14     17     19
    43  14     18     17     19     20
    44  14     18     17     19      1
    45  15     14     17     19     20
    46  15     14     17     19      1

Impropers

     1   1     14     17     19     18 
     2   2     20     19     17      1 

